116
Frame 1 Lattice="42.403185 0.001103 0.000249 0.00023 9.454704 -0.004499 4.3e-05 -0.004494 9.458219" Step=1 Time=0.000000
O 16.849928174126816 2.8576641824546636 6.68938826954318
O 18.049571351232245 2.8576953878092697 6.689395314088327
O 26.465035643381732 1.4804987666541336 6.890297747132835
O 27.66467882048717 1.4805299720087395 6.890304791677981
O 22.233677114217 7.531734301928027 5.9310889670024345
O 23.43332029132243 7.531765507282633 5.931096011547581
O 34.96390774584401 4.101150112404825 8.259808401812895
O 36.16355092294944 4.101181317759431 8.259815446358042
O 17.986738467721217 1.2121282555251678 1.9679294959698113
O 19.18638164482665 1.2121594608797737 1.967936540514958
O 26.947477678601278 5.234587994855751 3.4191587638373075
O 28.147120855706707 5.234619200210357 3.4191658083824543
O 23.5103639766956 1.5267918040535209 2.1449105092984
O 24.710007153801037 1.526823009408127 2.144917553843547
O 30.19196796006452 7.327435779013468 -0.003309078169981797
O 31.39161113716996 7.3274669843680735 -0.003302033624835029
O 34.37805663360883 8.188529258552075 2.811775491958912
O 35.577699810714265 8.188560463906681 2.811782536504059
O 20.452164815675207 5.849844048173181 1.2671578970221664
O 21.651807992780643 5.849875253527787 1.2671649415673132
Zr 0.0 0.0 0.0
Zr 2.1500016504389642e-05 -0.002247001724900629 4.7291131302821325
Zr 0.00011500008827854366 4.727355628932994 -0.0022495017268200452
Zr 0.0001365001047829333 4.725108627208093 4.7268636285553125
Zr 4.711468616737403 0.00012255564963484125 2.7666687904873495e-05
Zr 4.711490116753907 -0.002124446075265788 4.729140796970037
Zr 4.711583616825682 4.727478184582629 -0.002221835038915172
Zr 4.711605116842186 4.725231182857728 4.726891295243218
Zr 9.42292723644833 0.00024511103922506076 5.533331710520411e-05
Zr 9.422948736464836 -0.002001890685675568 4.729168463599238
Zr 9.423042236536608 4.727600739972219 -0.0021941684097148413
Zr 9.423063736553113 4.7253537382473185 4.726918961872418
Zr 6.824990757513948e-05 2.362549300619786 2.363426799431471
Zr 8.974992407952912e-05 2.360302298894885 7.092539929713604
Zr 0.00018324999585368315 7.089904929552781 2.361177297704651
Zr 0.0002047500123580728 7.08765792782788 7.090290427986784
Zr 4.711536866644978 2.362671856269421 2.363454466119376
Zr 4.711558366661482 2.36042485454452 7.0925675964015085
Zr 4.7116518667332565 7.090027485202416 2.361204964392556
Zr 4.711673366749761 7.087780483477515 7.090318094674689
Zr 9.422995486355907 2.362794411659011 2.363482132748576
Zr 9.423016986372412 2.36054740993411 7.092595263030709
Zr 9.423110486444184 7.090150040592006 2.361232631021756
Zr 9.423131986460689 7.087903038867105 7.090345761303889
Zr 2.355740059840906 -0.001062220783755665 2.3645653812229295
Zr 2.3557615598574104 -0.0033092225086562943 7.093678511505062
Zr 2.3558550599291843 4.726293408149239 2.3623158794961094
Zr 2.355876559945689 4.724046406424338 7.091429009778242
Zr 7.06720867657831 -0.0009396651341208238 2.364593047910834
Zr 7.067230176594814 -0.003186666859021453 7.093706178192967
Zr 7.067323676666588 4.726415963798874 2.362343546184014
Zr 7.067345176683092 4.724168962073973 7.091456676466147
Zr 11.778677293315713 -0.0008171094844859826 2.3646207145987392
Zr 11.778698793332218 -0.003064111209386612 7.093733844880872
Zr 11.778792293403992 4.726538519448509 2.362371212871919
Zr 11.778813793420497 4.724291517723608 7.091484343154052
Zr 2.3557868097775967 2.363734076793132 -0.001110915162258004
Zr 2.355808309794101 2.361487075068231 4.728002215119875
Zr 2.3559018098658755 7.091089705726127 -0.0033604168890780496
Zr 2.35592330988238 7.088842704001226 4.725752713393055
Zr 7.0672554265150005 2.363856632442767 -0.0010832484743531305
Zr 7.0672769265315045 2.361609630717866 4.728029881807779
Zr 7.067370426603278 7.0912122613757615 -0.003332750201173176
Zr 7.067391926619782 7.088965259650861 4.72578038008096
Zr 11.778724043252405 2.3639791880924017 -0.001055581786448257
Zr 11.77874554326891 2.361732186367501 4.728057548495684
Zr 11.778839043340684 7.0913348170253965 -0.0033050835132683028
Zr 11.778860543357188 7.089087815300496 4.725808046768864
C 2.3557293098554637 6.127769479510977e-05 1.3833314600165305e-05
C 2.355750809871968 -0.002185724030105519 4.729126963596732
C 2.355844309943742 4.72741690662779 -0.00223566841221988
C 2.3558658099602465 4.725169904902889 4.726877461869913
C 7.0671979265928675 0.00018383334442995103 4.1500002505038805e-05
C 7.0672194266093715 -0.0020631683804706777 4.729154630284637
C 7.067312926681145 4.7275394622774245 -0.0022080017243150066
C 7.067334426697649 4.725292460552524 4.726905128557817
C 11.77866654333027 0.0003063889940647923 6.91666904099123e-05
C 11.778688043346776 -0.0019406127308358367 4.729182296972542
C 11.77878154341855 4.727662017927059 -0.002180335036410133
C 11.778803043435055 4.725415016202159 4.726932795245722
C 2.355797559763039 2.362610578314581 2.363440632746071
C 2.3558190597795434 2.3603635765896804 7.092553763028204
C 2.3559125598513178 7.089966207247576 2.3611911310192513
C 2.3559340598678222 7.087719205522675 7.090304261301385
C 7.067266176500443 2.362733133964216 2.363468299433976
C 7.067287676516947 2.3604861322393154 7.092581429716109
C 7.067381176588721 7.090088762897211 2.361218797707156
C 7.067402676605225 7.08784176117231 7.090331927989289
C 11.778734793237847 2.362855689613851 2.3634959661218806
C 11.778756293254352 2.3606086878889503 7.092609096404014
C 11.778849793326126 7.090211318546846 2.3612464643950606
C 11.77887129334263 7.087964316821945 7.090359594677194
C 1.0749985442297135e-05 -0.0011234984785507749 2.364551547908329
C 3.225000194668678e-05 -0.003370500203451404 7.0936646781904615
C 0.00012575007372084079 4.726232130454443 2.362302046181509
C 0.00014725009022523045 4.7239851287295425 7.091415176463642
C 4.711479366722846 -0.0010009428289159336 2.364579214596234
C 4.71150086673935 -0.003247944553816563 7.093692344878367
C 4.711594366811124 4.726354686104078 2.362329712869414
C 4.7116158668276285 4.724107684379177 7.0914428431515475
C 9.422937986433773 -0.000878387439325714 2.364606881225434
C 9.422959486450278 -0.003125389164226343 7.093720011507568
C 9.42305298652205 4.726477241493669 2.3623573794986146
C 9.423074486538555 4.724230239768768 7.0914705097807476
C 5.749992213284234e-05 2.3636727990983366 -0.0011247484768581693
C 7.899993863723198e-05 2.361425797373436 4.727988381805274
C 0.00017250001041138602 7.091028428031332 -0.003374250203678215
C 0.00019400002691577565 7.088781426306431 4.725738880078454
C 4.7115261166595355 2.3637953547479715 -0.0010970817889532959
C 4.7115476166760395 2.3615483530230708 4.7280160484931795
C 4.711641116747814 7.091150983680967 -0.0033465835157733413
C 4.711662616764318 7.088903981956066 4.725766546766359
C 9.422984736370465 2.3639179101375616 -0.0010694151597529652
C 9.42300623638697 2.361670908412661 4.7280437151223795
C 9.423099736458742 7.091273539070556 -0.0033189168865730106
C 9.423121236475247 7.089026537345656 4.7257942133955595
116
Frame 2 Lattice="42.403185 0.001103 0.000249 0.00023 9.454704 -0.004499 4.3e-05 -0.004494 9.458219" Step=2 Time=0.800000
O 16.835502244276142 2.847550178869323 6.6949621244596464
O 18.05485960587792 2.8498093355414635 6.693673779094863
O 26.434794284606166 1.466757897572777 6.886039460876827
O 27.68908147420438 1.4768491549067617 6.890667927461928
O 22.1870710509653 7.534551140067164 5.93232159133313
O 23.468110209357175 7.5418451424284285 5.935637031730307
O 34.960658407114 4.089436230465753 8.255388758444605
O 36.16395081432493 4.101703174375506 8.259293408300133
O 17.985428873312106 1.2140875095912544 1.9609947418811184
O 19.199107778745212 1.2077334337327663 1.9738389858838332
O 26.926724081492164 5.246339287789919 3.406860832455449
O 28.159296989753688 5.228188933632488 3.399912804970782
O 23.504545615938834 1.5222356673350064 2.149187324413758
O 24.705358565512427 1.5308322944428319 2.1298839927961137
O 30.189878524882946 7.324796854324639 -0.001652148309593258
O 31.39216095182623 7.324532855370336 0.007576723925018666
O 34.382815052157405 8.183387886548163 2.8027870874389413
O 35.576759965452204 8.183555416712604 2.811122638043237
O 20.434670210586965 5.857265222308304 1.2695023271136063
O 21.68693766963733 5.8557157484325995 1.2636001346651202
Zr 0.005038536903941356 9.453286846748977 -0.004137056678931161
Zr 42.40184945553544 -0.001112986487808786 4.727345180433574
Zr 42.40044652127659 4.729032575073904 9.45095523703645
Zr 42.39448644040178 4.71603021909971 4.727077283513891
Zr 4.701574624729431 -0.0018429976359908562 9.456225704051786
Zr 4.710580586055944 0.005950034609838403 4.729638672553187
Zr 4.711243784614217 4.729743915896692 0.00031580400884920385
Zr 4.717393441769689 4.727458948341672 4.725224548335288
Zr 9.42189055891309 9.44805586532194 9.451867145376616
Zr 9.423188709456491 -0.0007293778968554106 4.732107957208131
Zr 9.424214716806977 4.716669865261464 9.450074690628638
Zr 9.420964284314788 4.722455444493799 4.72556567613232
Zr 0.0019576921318777327 2.3620159280507056 2.3672000225196985
Zr 42.40199767352178 2.3603913174068056 7.094565504686989
Zr 42.403220993948764 7.09659464058706 2.3622765677857167
Zr 0.0012944567064436783 7.08873075387588 7.0913234736074
Zr 4.7079779351328535 2.3626506151627016 2.365742312895049
Zr 4.7155371901193 2.3608767655108824 7.091674337548982
Zr 4.709712494630635 7.091540593152851 2.364324951027917
Zr 4.715812018480633 7.083649672785835 7.086647471133274
Zr 9.423945237984112 2.3643697006033015 2.3625582181245326
Zr 9.425786131179766 2.3602893146471935 7.087056378450405
Zr 9.423490295962392 7.087634032993381 2.3576615615924847
Zr 9.421322455307369 7.083746958109205 7.097311645782901
Zr 2.3542705591011486 0.0007011433389244168 2.3687890424920535
Zr 2.358760709297211 9.450499875114222 7.0880560937587225
Zr 2.352116085305036 4.722209485296998 2.365087312664899
Zr 2.3524475751709284 4.724338438674531 7.088839959130046
Zr 7.061000518053895 -0.0007783955842620114 2.362616145387093
Zr 7.06532080311586 -0.0005681603540348518 7.09258106106714
Zr 7.0648443155204355 4.721729938697197 2.365727375529769
Zr 7.067275236056036 4.724516898813133 7.0980591872790875
Zr 11.77683771241272 9.446231675221542 2.357887659843582
Zr 11.781697919392405 9.448917194447532 7.092738184423349
Zr 11.777482572986642 4.722366581115589 2.3605168146799045
Zr 11.774725012439385 4.7236977956943145 7.095277628706535
Zr 2.3546302543996207 2.3630321277119584 9.456130156507719
Zr 2.362366440537383 2.3660844982471136 4.721317113542256
Zr 2.3501436248656438 7.094980690178669 -0.001696581398295162
Zr 2.362391450737214 7.091511067182914 4.725711343867409
Zr 7.05930781800618 2.36493962126728 -0.0008229145373169838
Zr 7.073944884380634 2.3584985165899837 4.731734118386108
Zr 7.06863318740369 7.092527940655619 9.450987346828253
Zr 7.064102847909937 7.086738646236265 4.725159283536743
Zr 11.786704674922158 2.359777793863673 9.453989661413665
Zr 11.783094220502248 2.3600660243789044 4.730526844874208
Zr 11.779139000257633 7.0928585527234445 -0.0013189830998598644
Zr 11.777441072106043 7.092556105526778 4.730663068228802
C 2.351550961198173 0.014157556776433657 0.014376452352385128
C 2.3651883184289924 0.00854171656433487 4.741103063569918
C 2.357633699982865 4.72404617759851 -0.0012908143866179288
C 2.382118166368576 4.729658550472992 4.739097456626044
C 7.0723264288683305 9.452103856165545 0.0014742213326036676
C 7.067409463055851 0.0031261981965225957 4.721847072839661
C 7.074341052638672 4.733580946339687 0.013011445488908188
C 7.077711087846975 4.713724259179492 4.733292612923761
C 11.771851540364901 -0.0035196042526914008 9.445330542564909
C 11.780227811326922 0.005728840295070607 4.737808294897144
C 11.7781615815656 4.721191008765902 0.0002811840171565285
C 11.785790921508466 4.724725856794003 4.721083072252472
C 2.362665271510042 2.352801407244494 2.3619502058157535
C 2.353339946941938 2.3673268932596074 7.0882356157812865
C 2.345135399074603 7.074437145607826 2.3637271417999743
C 2.3743983020451314 7.077751555963069 7.085211605732496
C 7.074874044148785 2.366571232416603 2.3716145019750545
C 7.081053580049713 2.3629605261270936 7.078953532253801
C 7.063482456835186 7.094168949368445 2.3658928930704914
C 7.0678127547844625 7.094598764464009 7.098165630860195
C 11.77737482328215 2.3453969237009127 2.3745522098264087
C 11.78273500757264 2.356506472924409 7.0920792452976675
C 11.780299127937184 7.080712577934626 2.36055861491866
C 11.785259137991437 7.075722550624612 7.099697508267602
C 42.3948810017142 0.009902100727383 2.3597083044858254
C 42.40201021688503 9.450826864615237 7.0934292209580665
C 0.013991404049609324 4.717989438138517 2.3576500591155907
C 42.39992600624474 4.7327720323165865 7.09071726050834
C 4.711239917087849 0.019815684709576724 2.358558664177651
C 4.7126608466383475 0.008604611240163934 7.101694213328504
C 4.719382516709397 4.745674473026519 2.3615077738990435
C 4.7337593043616195 4.72562425561756 7.088592464248571
C 9.427677102323928 0.022608485957235868 2.3545010629478322
C 9.41625144732583 9.448016424365482 7.08569053469072
C 9.439908050801028 4.728571319425513 2.3682166087331566
C 9.422964490823006 4.724404163634293 7.084305819643136
C 42.39385125585224 2.3766526416311313 9.45538594621249
C 0.015334413233770584 2.3591988415123724 4.7291033566851475
C 42.401180807979074 7.093015906326416 0.014133592824406946
C 42.39959244528789 7.0824277010416115 4.712856293726941
C 4.712386004106233 2.369180614282107 0.001569527919277368
C 4.709827778596048 2.3496581389768254 4.714796273801041
C 4.708462170633062 7.09356313537835 0.007539642538484886
C 4.706094533426716 7.101366469515134 4.716378360654068
C 9.419048545241617 2.3454847842824633 9.44936667698024
C 9.421856294735644 2.353866708900893 4.707476772395545
C 9.443433851234882 7.096888534089304 0.0024583816939494486
C 9.423331675165755 7.110393956434236 4.721689986003688
116
Frame 3 Lattice="42.403185 0.001103 0.000249 0.00023 9.454704 -0.004499 4.3e-05 -0.004494 9.458219" Step=3 Time=1.600000
O 16.821096308920836 2.8374562420445155 6.7005259354818385
O 18.060177852045413 2.841943350294234 6.69794220026583
O 26.406772267309186 1.4530772563358607 6.881811262411031
O 27.71137475509117 1.4731582521990474 6.891031055632321
O 22.13805570379927 7.5373478588307 5.933544176596764
O 23.505259425152207 7.551904777472112 5.940178075313512
O 34.954959796897406 4.077722284815749 8.250969100693702
O 36.16684996309702 4.102255183443903 8.258781405064527
O 17.97823103032462 1.2160566650663762 1.9540097761149715
O 19.217532217449484 1.2032874742673532 1.9797816121224052
O 26.906810233767832 5.258050465319148 3.3945930284936123
O 28.170643371319297 5.2217786831045645 3.3807099594677994
O 23.497427641785823 1.5176794920428918 2.1534741663630004
O 24.702059576178936 1.5348516310164855 2.1148805382971156
O 30.19080819183395 7.322157993865886 3.490267599201679e-05
O 31.38968166747623 7.3216087021543945 0.01840528658691752
O 34.38634383678471 8.178256503759485 2.793818739856158
O 35.5770197637025 8.178560421924605 2.8104828107848054
O 20.413376735574747 5.864686283323075 1.2718768382937444
O 21.725696266525503 5.8615362857965625 1.2600152896879335
Zr 0.009937047647266902 9.451892525413534 -0.003765089229717539
Zr 42.40061981293262 -0.0010819774723147256 4.725348300264093
Zr 42.397657449860375 4.7340804469146835 9.44572486327428
Zr 42.385788780488284 4.705888937510657 4.7270419201868865
Zr 4.691687617622435 0.0006754183242868473 9.454207520383502
Zr 4.709681051606798 0.013994428113820637 4.730126528048877
Zr 4.710913949383608 4.732009652238597 0.0028434086498431957
Zr 4.723171769472322 4.729676678061447 4.723567840607231
Zr 9.42057088467545 9.445669421633266 9.44996172518606
Zr 9.423398691323097 0.000543138879629962 4.735037416175434
Zr 9.425324203905905 4.710263066618187 9.444157412527904
Zr 9.418854835583636 4.71957720718508 4.724222415252786
Zr 0.003957101510555604 2.3614825726455133 2.3709431428572514
Zr 42.400838001879976 2.3593773389726818 7.0963420803498
Zr 42.40318114461403 7.102141236237763 2.363116823124443
Zr 0.0024941306917639484 7.089803582784372 7.092356519873767
Zr 4.7044389973384275 2.3626193533753477 2.368010095630286
Zr 4.7194960195697835 2.3613286711893564 7.09079111304452
Zr 4.707773122238379 7.093043675134762 2.367434907970907
Zr 4.719950670836388 7.0795389092634 7.083006941442075
Zr 9.424864998243258 2.3659349627989354 2.3616242736320037
Zr 9.428515287728448 2.3600211780481786 7.081537567339334
Zr 9.423850111961297 7.085138081579511 2.3541005169650724
Zr 9.419512924505215 7.079610953127349 7.104247417319281
Zr 2.352811055342248 0.0024645124894481997 2.373002669354407
Zr 2.361539855876564 9.449607741099676 7.086942709217099
Zr 2.348407101913088 4.718135603496809 2.3678386723057487
Zr 2.3490485815212154 4.724630466937058 7.0862609431234365
Zr 7.054822350608909 -0.0006171252542693338 2.3606392430394654
Zr 7.063421426220976 0.0020302801705535172 7.0914659880117
Zr 7.062384949068034 4.717074015860173 2.3690911217426724
Zr 7.067225289299453 4.7248648551435775 7.104621560347538
Zr 11.774678159116567 9.438609317898665 2.3556636233867843
Zr 11.784357078183191 9.44619727488209 7.096231487535136
Zr 11.77608287962064 4.718204666410789 2.35867244565192
Zr 11.770556255155231 4.723104081120262 7.099050844858432
Zr 2.3534306990342557 2.366824177312788 9.455155002078904
Zr 2.3689245709294986 2.3706618456499564 4.714662124907269
Zr 2.344435424509767 7.098851614458792 -3.273606778214591e-05
Zr 2.368849594077547 7.094159368631914 4.725669983829265
Zr 7.051400197160858 2.3660025448915287 -0.0005525363537803236
Zr 7.080592848283966 2.3553974469817303 4.735408246677498
Zr 7.06984295079345 7.0983175473491915 9.447111296177342
Zr 7.0608237665162 7.084522059050236 4.724548216743601
Zr 11.7945223420428 2.360060364460089 9.450818682583636
Zr 11.787322933128248 2.3583898333012496 4.732986110855907
Zr 11.779328989639337 7.0943722548246795 0.00066712144090231
Zr 11.775921630300507 7.09601436718409 4.735508059409323
C 2.3469027479064066 0.028103438875931957 0.028578588780013337
C 2.3740060076249074 0.019138798677413145 4.752958808368071
C 2.3589132435782005 4.720755685965328 -0.00035603600525224873
C 2.4076007500322936 4.734107129359157 4.75115691450674
C 7.077254923100161 9.449372849228924 0.007315607464559427
C 7.067709465053647 0.008225243329118932 4.714639903653116
C 7.081429158850692 4.739572349797595 0.02808039993775327
C 7.088127741510348 4.702346666675749 4.739629834508178
C 11.765363427008754 -0.002891774122469995 9.432506161656274
C 11.782057489736134 0.013277974936600162 4.746344041612148
C 11.77785152768618 4.714730047938048 0.002722631186510458
C 11.793018729359916 4.724066752925693 4.715323646538092
C 2.3689731526569306 2.3431125952155694 2.3604496838552618
C 2.3504109662801533 2.3742099189623587 7.083987745335817
C 2.333958362470277 7.059128764068768 2.366232941827809
C 2.3921627563942813 7.067934311102775 7.080199150181535
C 7.082501904967389 2.3703993674019443 2.379620226889996
C 7.094789492683408 2.3654047316697913 7.06552633824419
C 7.0597636825980805 7.0982190721505125 2.370516831482446
C 7.068362789596569 7.101295615585197 7.105939156398738
C 11.776354754714498 2.328068637718662 2.385457876494418
C 11.786983642185048 2.352424316918118 7.0915694551610855
C 11.78202838142415 7.071294071423034 2.359910866763057
C 11.791886913396459 7.063581131406163 7.108965134277558
C 42.38636375167784 0.01974442016847506 2.3546763048518793
C 42.400330695658866 9.449230050571925 7.0973935838817885
C 0.027477173001223203 4.709816922488352 2.353058243200024
C 42.39626727611288 4.740415815926245 7.08975029323186
C 4.710840509980295 0.040411598513680376 2.352608459086402
C 4.713680865407216 0.020356889404894423 7.10962588742949
C 4.72698071836123 4.764793625978276 2.360716032671786
C 4.7555728402500055 4.7271407944354715 7.0857922557357185
C 9.43285608007243 0.045774334787670554 2.344505779112773
C 9.409873242620383 9.444487103233586 7.0821901489189765
C 9.45708301947104 4.730665453356776 2.3739754951914946
C 9.423364343425895 4.724557991611458 7.077241486700413
C 42.384224505120144 2.3928730120258743 9.453441519734659
C 0.03018994586665492 2.3569919462577653 4.730198250739681
C 42.398761627773126 7.093940601382915 0.031181691561164543
C 42.39555340752374 7.075031077342242 4.699885228701761
C 4.713105932176509 2.3745358065734465 0.004175944332105988
C 4.708037966498494 2.337948395311477 4.701746998695176
C 4.705183253614873 7.0959753512244745 0.0182853854890487
C 4.700496456277803 7.113688454468577 4.707140758171239
C 9.415589204229612 2.3317362450862054 9.441606524316056
C 9.42121620559448 2.3461827627566887 4.687180705953218
C 9.464027885451904 7.102383200407942 0.008165497819710014
C 9.424021964370066 7.13147046327703 4.717656141107969
