116
Lattice="42.4157953260 0.0000000000 0.0000000000 0.0000000000 9.4257316590 0.0000000000 0.0000000000 0.0000000000 9.4257316590" Properties=species:S:1:pos:R:3 pbc="T T T" Step=1 Time=1.000000 EFree_eV=-1024.231071 ETotal_eV=-1015.263144 Temperature_K=1264.33 Pressure_kB=-27.530
C      11.782170      0.000000      0.000000
C      11.782170      7.069300      7.069300
C       9.425730      0.000000      7.069300
C       9.425730      7.069300      0.000000
C       7.069300      0.000000      0.000000
C       7.069300      7.069300      7.069300
C       4.712870      0.000000      7.069300
C       4.712870      7.069300      0.000000
C       2.356430      7.069300      7.069300
C       0.000000      2.356430      0.000000
C      11.782170      4.712870      0.000000
C      11.782170      2.356430      7.069300
C       9.425730      4.712870      7.069300
C       9.425730      2.356430      0.000000
C       7.069300      4.712870      0.000000
C       7.069300      2.356430      7.069300
C       2.356430      4.712870      0.000000
C       2.356430      2.356430      7.069300
C       0.000000      7.069300      4.712870
C      11.782170      0.000000      4.712870
C      11.782170      7.069300      2.356430
C       9.425730      0.000000      2.356430
C       7.069300      0.000000      4.712870
C       4.712870      0.000000      2.356430
C       4.712870      7.069300      4.712870
C       2.356430      0.000000      4.712870
C       2.356430      7.069300      2.356430
C       0.000000      4.712870      2.356430
C       0.000000      2.356430      4.712870
C      11.782170      4.712870      4.712870
C      11.782170      2.356430      2.356430
C       9.425730      4.712870      2.356430
C       9.425730      2.356430      4.712870
C       7.069300      4.712870      4.712870
C       7.069300      2.356430      2.356430
C       2.356430      4.712870      4.712870
N       0.000000      0.000000      7.069300
N       0.000000      7.069300      0.000000
N       2.356430      0.000000      0.000000
N       0.000000      4.712870      7.069300
N       4.712870      4.712870      7.069300
N       4.712870      2.356430      0.000000
N       0.000000      0.000000      2.356430
N       9.425730      7.069300      4.712870
N       7.069300      7.069300      2.356430
N       4.712870      4.712870      2.356430
N       4.712870      2.356430      4.712870
N       2.356430      2.356430      2.356430
Zr      0.000000      0.000000      0.000000
Zr      0.000000      7.069300      7.069300
Zr     11.782170      0.000000      7.069300
Zr     11.782170      7.069300      0.000000
Zr      9.425730      0.000000      0.000000
Zr      9.425730      7.069300      7.069300
Zr      7.069300      0.000000      7.069300
Zr      7.069300      7.069300      0.000000
Zr      4.712870      0.000000      0.000000
Zr      4.712870      7.069300      7.069300
Zr      2.356430      0.000000      7.069300
Zr      2.356430      7.069300      0.000000
Zr      0.000000      4.712870      0.000000
Zr      0.000000      2.356430      7.069300
Zr     11.782170      4.712870      7.069300
Zr     11.782170      2.356430      0.000000
Zr      9.425730      4.712870      0.000000
Zr      9.425730      2.356430      7.069300
Zr      7.069300      4.712870      7.069300
Zr      7.069300      2.356430      0.000000
Zr      4.712870      4.712870      0.000000
Zr      4.712870      2.356430      7.069300
Zr      2.356430      4.712870      7.069300
Zr      2.356430      2.356430      0.000000
Zr      0.000000      0.000000      4.712870
Zr      0.000000      7.069300      2.356430
Zr     11.782170      0.000000      2.356430
Zr     11.782170      7.069300      4.712870
Zr      9.425730      0.000000      4.712870
Zr      9.425730      7.069300      2.356430
Zr      7.069300      0.000000      2.356430
Zr      7.069300      7.069300      4.712870
Zr      4.712870      0.000000      4.712870
Zr      4.712870      7.069300      2.356430
Zr      2.356430      0.000000      2.356430
Zr      2.356430      7.069300      4.712870
Zr      0.000000      4.712870      4.712870
Zr      0.000000      2.356430      2.356430
Zr     11.782170      4.712870      2.356430
Zr     11.782170      2.356430      4.712870
Zr      9.425730      4.712870      4.712870
Zr      9.425730      2.356430      2.356430
Zr      7.069300      4.712870      2.356430
Zr      7.069300      2.356430      4.712870
Zr      4.712870      4.712870      4.712870
Zr      4.712870      2.356430      2.356430
Zr      2.356430      4.712870      2.356430
Zr      2.356430      2.356430      4.712870
O      36.740050      5.914630      1.937300
O      37.940050      5.914630      1.937300
O      30.278570      2.354180      1.091560
O      31.478570      2.354180      1.091560
O      16.720620      1.481490      6.007280
O      17.920620      1.481490      6.007280
O      34.020790      7.563400      5.879560
O      35.220790      7.563400      5.879560
O      17.175850      5.585980      1.038720
O      18.375850      5.585980      1.038720
O      26.582270      1.008270      7.319540
O      27.782270      1.008270      7.319540
O      27.347060      6.128640      2.935180
O      28.547060      6.128640      2.935180
O      21.170640      2.918190      9.043480
O      22.370640      2.918190      9.043480
O      22.019760      8.515140      2.772900
O      23.219760      8.515140      2.772900
O      22.884580      3.832110      4.327250
O      24.084580      3.832110      4.327250
114
Lattice="42.4132270000 0.0019440000 -0.0013390000 0.0004320000 9.4294060000 -0.0014360000 -0.0002970000 -0.0014360000 9.4297200000" Properties=species:S:1:pos:R:3 pbc="T T T" Step=20800 Time=26344.000000 EFree_eV=-1049.264944 ETotal_eV=-1048.867274 Temperature_K=1096.27 Pressure_kB=-6.310
C      12.040260      0.210130      8.800760
C       9.493680      0.176010      6.823890
C       9.742820      7.355790      9.283600
C       7.319090      0.254340      9.189970
C       7.196790      7.338030      6.903450
C       4.854150      0.359110      6.883280
C       4.853170      7.297770      9.231430
C       2.519310      7.433680      6.704640
C       0.424880      2.735860      9.209790
C      11.834690      2.684270      6.620040
C       9.417980      4.890190      6.831430
C       9.656760      2.460800      9.303240
C       7.174360      4.784920      9.343310
C       6.976240      2.700360      6.844070
C       2.420440      5.175680      9.306090
C       2.406640      2.384470      6.725740
C      12.243710      6.067390      1.920690
C       9.601430      0.143220      2.131920
C       7.147980      0.223930      4.417480
C       4.826140      0.325750      2.073220
C       4.802160      7.197090      4.559110
C       2.654850      0.053620      4.275950
C       2.651370      7.139430      1.901430
C      39.239650      4.889560      0.897480
C       0.025330      2.608800      4.782600
C      10.938840      5.495250      1.907530
C      11.968520      2.514560      1.904580
C       9.639710      5.233620      2.283440
C       9.424780      2.879270      4.520160
C       7.117550      4.912510      4.451030
C       7.117610      2.694980      1.994140
C       2.476530      4.946900      4.611420
N       0.345460      0.244420      7.470670
N       0.308170      7.225830      8.887770
N       2.611570      0.268330      9.092070
N       0.239720      5.231110      6.929950
N       4.611550      4.899660      6.844150
N       4.847690      2.794260      9.082510
N       0.248910      0.106490      1.993420
N       9.368480      7.412530      4.467930
N       7.090550      7.283920      2.179720
N       4.680600      5.119270      2.070540
N       4.754200      2.709150      4.476630
N       2.694910      2.555740      2.167910
Zr     41.876130      0.105550      0.016840
Zr      0.302370      7.392100      6.815110
Zr     11.627820      0.066640      6.675170
Zr     11.908600      7.145780      9.161960
Zr      9.734060      0.179740      9.205890
Zr      9.350170      7.381300      6.920570
Zr      7.137980      0.435060      6.783430
Zr      7.197430      7.278620      9.107460
Zr      4.926810      0.318950      9.258090
Zr      4.871080      7.337960      7.019220
Zr      2.434930      0.379500      6.859760
Zr      2.501190      7.348680      9.232800
Zr      0.334220      5.117320      9.020240
Zr      0.018950      2.275870      7.082820
Zr     11.866970      4.927430      6.673020
Zr     11.747450      2.537110      9.162940
Zr      9.416140      4.762210      9.309960
Zr      9.394210      2.635500      6.771740
Zr      7.204520      4.946070      6.915740
Zr      7.258510      2.472300      9.167500
Zr      4.908110      4.914520      9.151930
Zr      4.857400      2.616900      6.963080
Zr      2.525510      4.943190      6.723340
Zr      2.364240      2.542130      9.386150
Zr     40.074180      2.798870      5.144050
Zr      0.006290      7.479720      2.089750
Zr     13.345140      0.037280      2.444840
Zr     13.833100      5.784050      3.370970
Zr      9.488530      0.300490      4.281850
Zr      9.431000      7.494780      2.205670
Zr      7.144000      0.259870      2.194650
Zr      7.249760      7.297560      4.515750
Zr      4.897190      0.223450      4.733470
Zr      4.745950      7.290500      2.160980
Zr      2.560780      0.169240      2.096770
Zr      2.436060      7.333710      4.386620
Zr      0.126590      4.729410      4.702960
Zr     41.933060      2.030000      2.139810
Zr     15.327520      2.794880      1.647550
Zr     12.024340      2.511540      4.142340
Zr      9.463980      5.182970      4.501210
Zr      9.490570      2.616620      2.093660
Zr      7.057990      5.056310      2.243700
Zr      7.143140      2.729410      4.478170
Zr      4.777550      4.902270      4.543120
Zr      4.867740      2.567990      2.347190
Zr      2.499850      5.065070      2.093370
Zr      2.371710      2.534160      4.302850
O      40.622360      1.167500      0.971320
O      38.344290      4.191130      0.614530
O      13.064350      3.051520      1.259450
O      11.826380      0.439160      4.412140
O      12.452590      5.097750      4.735980
O      11.807950      6.970740      7.005470
O       0.289560      7.223640      4.442160
O      12.460460      9.103730      0.783310
O      14.148580      7.750170      3.020310
O      15.090980      4.337990      3.203880
O      40.463480      4.656090      5.036590
O      40.170240      2.169190      3.223390
O      13.127500      3.409690      6.758230
O       0.079460      1.172080      4.947370
O      40.457550      2.204710      6.810930
O      11.790630      4.831800      8.629360
O      13.622730      1.768730      3.700070
O      15.407300      0.869970      1.835760
O       0.273090      5.142410      2.005720
O      40.872230      8.020000      1.036450
O      16.579040      4.326890      1.123710
O      15.701080      4.178890      9.321270
