116
Frame 1 Lattice="42.403185 0.001103 0.000249 0.00023 9.454704 -0.004499 4.3e-05 -0.004494 9.458219" Step=1 Time=0.000000
O 16.849928174126816 2.8576641824546636 6.68938826954318
O 18.049571351232245 2.8576953878092697 6.689395314088327
O 26.465035643381732 1.4804987666541336 6.890297747132835
O 27.66467882048717 1.4805299720087395 6.890304791677981
O 22.233677114217 7.531734301928027 5.9310889670024345
O 23.43332029132243 7.531765507282633 5.931096011547581
O 34.96390774584401 4.101150112404825 8.259808401812895
O 36.16355092294944 4.101181317759431 8.259815446358042
O 17.986738467721217 1.2121282555251678 1.9679294959698113
O 19.18638164482665 1.2121594608797737 1.967936540514958
O 26.947477678601278 5.234587994855751 3.4191587638373075
O 28.147120855706707 5.234619200210357 3.4191658083824543
O 23.5103639766956 1.5267918040535209 2.1449105092984
O 24.710007153801037 1.526823009408127 2.144917553843547
O 30.19196796006452 7.327435779013468 -0.003309078169981797
O 31.39161113716996 7.3274669843680735 -0.003302033624835029
O 34.37805663360883 8.188529258552075 2.811775491958912
O 35.577699810714265 8.188560463906681 2.811782536504059
O 20.452164815675207 5.849844048173181 1.2671578970221664
O 21.651807992780643 5.849875253527787 1.2671649415673132
Zr 0.0 0.0 0.0
Zr 2.1500016504389642e-05 -0.002247001724900629 4.7291131302821325
Zr 0.00011500008827854366 4.727355628932994 -0.0022495017268200452
Zr 0.0001365001047829333 4.725108627208093 4.7268636285553125
Zr 4.711468616737403 0.00012255564963484125 2.7666687904873495e-05
Zr 4.711490116753907 -0.002124446075265788 4.729140796970037
Zr 4.711583616825682 4.727478184582629 -0.002221835038915172
Zr 4.711605116842186 4.725231182857728 4.726891295243218
Zr 9.42292723644833 0.00024511103922506076 5.533331710520411e-05
Zr 9.422948736464836 -0.002001890685675568 4.729168463599238
Zr 9.423042236536608 4.727600739972219 -0.0021941684097148413
Zr 9.423063736553113 4.7253537382473185 4.726918961872418
Zr 6.824990757513948e-05 2.362549300619786 2.363426799431471
Zr 8.974992407952912e-05 2.360302298894885 7.092539929713604
Zr 0.00018324999585368315 7.089904929552781 2.361177297704651
Zr 0.0002047500123580728 7.08765792782788 7.090290427986784
Zr 4.711536866644978 2.362671856269421 2.363454466119376
Zr 4.711558366661482 2.36042485454452 7.0925675964015085
Zr 4.7116518667332565 7.090027485202416 2.361204964392556
Zr 4.711673366749761 7.087780483477515 7.090318094674689
Zr 9.422995486355907 2.362794411659011 2.363482132748576
Zr 9.423016986372412 2.36054740993411 7.092595263030709
Zr 9.423110486444184 7.090150040592006 2.361232631021756
Zr 9.423131986460689 7.087903038867105 7.090345761303889
Zr 2.355740059840906 -0.001062220783755665 2.3645653812229295
Zr 2.3557615598574104 -0.0033092225086562943 7.093678511505062
Zr 2.3558550599291843 4.726293408149239 2.3623158794961094
Zr 2.355876559945689 4.724046406424338 7.091429009778242
Zr 7.06720867657831 -0.0009396651341208238 2.364593047910834
Zr 7.067230176594814 -0.003186666859021453 7.093706178192967
Zr 7.067323676666588 4.726415963798874 2.362343546184014
Zr 7.067345176683092 4.724168962073973 7.091456676466147
Zr 11.778677293315713 -0.0008171094844859826 2.3646207145987392
Zr 11.778698793332218 -0.003064111209386612 7.093733844880872
Zr 11.778792293403992 4.726538519448509 2.362371212871919
Zr 11.778813793420497 4.724291517723608 7.091484343154052
Zr 2.3557868097775967 2.363734076793132 -0.001110915162258004
Zr 2.355808309794101 2.361487075068231 4.728002215119875
Zr 2.3559018098658755 7.091089705726127 -0.0033604168890780496
Zr 2.35592330988238 7.088842704001226 4.725752713393055
Zr 7.0672554265150005 2.363856632442767 -0.0010832484743531305
Zr 7.0672769265315045 2.361609630717866 4.728029881807779
Zr 7.067370426603278 7.0912122613757615 -0.003332750201173176
Zr 7.067391926619782 7.088965259650861 4.72578038008096
Zr 11.778724043252405 2.3639791880924017 -0.001055581786448257
Zr 11.77874554326891 2.361732186367501 4.728057548495684
Zr 11.778839043340684 7.0913348170253965 -0.0033050835132683028
Zr 11.778860543357188 7.089087815300496 4.725808046768864
C 2.3557293098554637 6.127769479510977e-05 1.3833314600165305e-05
C 2.355750809871968 -0.002185724030105519 4.729126963596732
C 2.355844309943742 4.72741690662779 -0.00223566841221988
C 2.3558658099602465 4.725169904902889 4.726877461869913
C 7.0671979265928675 0.00018383334442995103 4.1500002505038805e-05
C 7.0672194266093715 -0.0020631683804706777 4.729154630284637
C 7.067312926681145 4.7275394622774245 -0.0022080017243150066
C 7.067334426697649 4.725292460552524 4.726905128557817
C 11.77866654333027 0.0003063889940647923 6.91666904099123e-05
C 11.778688043346776 -0.0019406127308358367 4.729182296972542
C 11.77878154341855 4.727662017927059 -0.002180335036410133
C 11.778803043435055 4.725415016202159 4.726932795245722
C 2.355797559763039 2.362610578314581 2.363440632746071
C 2.3558190597795434 2.3603635765896804 7.092553763028204
C 2.3559125598513178 7.089966207247576 2.3611911310192513
C 2.3559340598678222 7.087719205522675 7.090304261301385
C 7.067266176500443 2.362733133964216 2.363468299433976
C 7.067287676516947 2.3604861322393154 7.092581429716109
C 7.067381176588721 7.090088762897211 2.361218797707156
C 7.067402676605225 7.08784176117231 7.090331927989289
C 11.778734793237847 2.362855689613851 2.3634959661218806
C 11.778756293254352 2.3606086878889503 7.092609096404014
C 11.778849793326126 7.090211318546846 2.3612464643950606
C 11.77887129334263 7.087964316821945 7.090359594677194
C 1.0749985442297135e-05 -0.0011234984785507749 2.364551547908329
C 3.225000194668678e-05 -0.003370500203451404 7.0936646781904615
C 0.00012575007372084079 4.726232130454443 2.362302046181509
C 0.00014725009022523045 4.7239851287295425 7.091415176463642
C 4.711479366722846 -0.0010009428289159336 2.364579214596234
C 4.71150086673935 -0.003247944553816563 7.093692344878367
C 4.711594366811124 4.726354686104078 2.362329712869414
C 4.7116158668276285 4.724107684379177 7.0914428431515475
C 9.422937986433773 -0.000878387439325714 2.364606881225434
C 9.422959486450278 -0.003125389164226343 7.093720011507568
C 9.42305298652205 4.726477241493669 2.3623573794986146
C 9.423074486538555 4.724230239768768 7.0914705097807476
C 5.749992213284234e-05 2.3636727990983366 -0.0011247484768581693
C 7.899993863723198e-05 2.361425797373436 4.727988381805274
C 0.00017250001041138602 7.091028428031332 -0.003374250203678215
C 0.00019400002691577565 7.088781426306431 4.725738880078454
C 4.7115261166595355 2.3637953547479715 -0.0010970817889532959
C 4.7115476166760395 2.3615483530230708 4.7280160484931795
C 4.711641116747814 7.091150983680967 -0.0033465835157733413
C 4.711662616764318 7.088903981956066 4.725766546766359
C 9.422984736370465 2.3639179101375616 -0.0010694151597529652
C 9.42300623638697 2.361670908412661 4.7280437151223795
C 9.423099736458742 7.091273539070556 -0.0033189168865730106
C 9.423121236475247 7.089026537345656 4.7257942133955595
114
Frame 4559 Lattice="42.403185 0.001103 0.000249 0.00023 9.454704 -0.004499 4.3e-05 -0.004494 9.458219" Step=4559 Time=3429.800000
O 13.317959321897305 6.620559141962088 3.427102089474139
O 13.290664904658088 6.446042083345653 8.09764837269554
O 13.81378583825386 1.5791189116597537 4.735988072666365
O 14.598780985284023 9.19285836938204 2.824680735838373
O 13.198155931662965 0.921884008823477 0.029081958538077993
O 11.85277604635361 4.8652830790788855 0.4008412012079851
O 38.976651786157205 2.0880068173995983 0.688065822468061
O 0.1396406955047964 7.266176629428694 0.6158723010877675
O 13.13045088318531 4.390320882887766 4.588435525382378
O 22.048695444882593 7.830786622754808 5.758936951185859
O 22.347692963379078 6.553609154240213 6.075620954625544
O 23.762220232754196 4.642882935551521 6.59440105998982
O 23.966989556466526 5.788193661711073 6.140605267647978
O 17.333983380882284 1.6629148602233508 6.4127337189792515
O 16.584893879217223 2.4820696106231157 6.078036078548636
O 41.33104738760086 5.791716352648686 7.951878695299633
O 41.32030354951911 9.103572608493485 3.4331621913543473
O 29.212035979858456 8.921239905949449 5.713480720408128
O 29.99453754950327 8.59236282789846 4.586283568433827
Zr 0.09621671055065256 0.11660070751585092 0.3721029533474214
Zr 0.23888758352983996 0.0820833301189381 5.136277022802024
Zr 0.018071364454193203 4.663100188484031 0.31315098820072956
Zr 0.30755629273722673 4.895914783704513 5.230149929982028
Zr 4.989573326957658 0.13944996702773038 0.43663660679189253
Zr 4.838861759982855 0.48062933494501237 5.141364526685592
Zr 4.872141929336391 4.83421262810101 0.5153344642451398
Zr 4.843702965541037 4.98815799438849 5.152370994828027
Zr 9.69395059553749 0.07400843224521159 0.36493040878931354
Zr 9.60229811797606 0.09078391344177718 5.242831468089985
Zr 9.517227817922128 4.874638347589575 0.5311477533377066
Zr 9.653092829128347 5.049346886939485 5.0426093408819685
Zr 0.2515229287376341 2.494845771019279 2.901580377794381
Zr 0.11646936672072658 2.3858408931505606 7.518913431336992
Zr 0.009803500092289157 7.048495419967537 2.8888484565044688
Zr 0.2662427126150957 7.162804493321834 7.126864599999711
Zr 4.886590394006972 2.501972672869851 2.764487915663331
Zr 5.0074682536750075 2.4730996017871734 7.7131835356793745
Zr 4.939693421843541 7.327295750621181 2.812242818201453
Zr 4.920759373816242 7.308431036275006 7.526824868459868
Zr 9.586299505211846 2.4325462251871754 2.828855948144211
Zr 9.69326060704923 2.451527456301886 7.461350843874954
Zr 9.621078121529045 7.330061704816269 2.723613553565463
Zr 9.368468785579404 7.301748938681639 7.376693351973507
Zr 2.5774174510375203 0.2435129315886008 2.696279760875215
Zr 2.56781110933106 0.19292316410159904 7.594424943104319
Zr 2.428094430924733 4.870162885105498 2.906060128618863
Zr 2.754157086007017 5.017869013490422 7.663933122410148
Zr 7.270678515639717 0.1644104984029875 2.8306845380556855
Zr 7.2752103028932655 0.32383545417101445 7.434819658088476
Zr 7.0670831936497205 5.034546146053052 2.7377223315901915
Zr 7.243543100113511 4.910645211551201 7.477189300319095
Zr 12.837237163327465 0.17528681974498514 2.8684777406804884
Zr 11.963931827869642 0.20742077756087857 7.5231858153183655
Zr 11.885126596012498 4.775985611727035 2.873903808446669
Zr 12.00808187968346 4.724107279125037 7.456972029741628
Zr 2.590798587400268 2.4264738700621673 0.393155206305198
Zr 2.5983903507135193 2.5338693043408704 5.371706293596018
Zr 2.420112503986534 7.184922193917501 0.3470928304544435
Zr 2.676654245967629 7.312052971566193 5.113662395088853
Zr 7.297398794688766 2.5675210131026764 0.37468549852372146
Zr 7.235857501531032 2.578739785588629 5.177830194726109
Zr 7.082525582411937 7.337038280388648 0.4130795238037784
Zr 7.268284322806598 7.284192403130078 5.216160433904333
Zr 11.74195899663803 2.545298770280079 0.26103138798405734
Zr 12.084473946158486 2.4515254797943635 5.190810682055951
Zr 11.886454168651818 7.221923582082167 0.311463785151362
Zr 11.9109286825358 7.213627690856762 5.136659954203905
C 2.2115266815859966 0.09296853703546105 0.37218450543906506
C 2.446137654425953 0.37955106097636515 5.262974946126811
C 2.3678205611759444 4.876062894850982 0.4864176504497886
C 2.426457823080006 5.036424098566662 5.212287709215328
C 7.18018077202168 0.03502145036653389 0.3834729990300012
C 7.209847565486984 0.26901564917401954 5.170367158383525
C 7.16215516909792 4.966049108924511 0.3956277820783627
C 7.3309076080335815 4.907419037608422 4.985431308317041
C 12.04542534127969 0.06033072457018485 0.4653030745818358
C 11.906972653659679 9.194063692180894 5.364093217723797
C 11.972454236332634 4.8889595236256085 5.158641209482919
C 2.4183180883481477 2.490227739137093 2.7295923454997753
C 2.4321449924073115 2.458118456089274 7.511002081265662
C 2.450774012205505 7.109361856009434 2.880109523081422
C 2.527287046302811 7.3129055165022745 7.619578061422529
C 7.216481104718667 2.4950485619988423 2.8288379787769036
C 7.284542717538565 2.4968734122711065 7.448657182030068
C 7.232572537422042 7.2641132383936435 2.650211498221735
C 7.218058230015421 7.255256998492756 7.547206529267379
C 11.857898862176183 2.690988254359998 2.4726629632894572
C 12.252718000776937 2.5063274130091227 7.454360772735198
C 12.361692409899462 7.229656539892124 2.691732312113354
C 12.369996708773048 6.985234507779792 7.309199508743242
C 42.37461390042493 0.23826396982625594 2.724442257567024
C 0.09637676715315935 0.05852904137623085 7.347130626502723
C 42.37175837075023 4.820620724599957 2.716486376476936
C 42.350473710974576 4.735688891422296 7.3851614860293
C 4.7334346300350365 0.1279070078771138 2.7041533835717617
C 4.891545462136456 0.3153944441177123 7.623848245909555
C 4.85280719268537 4.793589676092433 2.881261343330025
C 4.776201731165601 4.945217442066324 7.543692990686692
C 9.393178205503798 0.22016364711932754 2.931008625050125
C 9.77479049933468 0.09256756396835723 7.588144300293881
C 9.500435770513954 5.080392091138355 2.770075929641578
C 9.76780946327075 4.896939419920013 7.52903150717569
C 42.398170981638856 2.3693456441425425 0.3350008549267767
C 42.355695733508 2.45040013787324 5.191275144257652
C 39.24471911506424 2.547569310430605 1.7356430430546468
C 0.06561785509629327 7.012821909878324 5.245803984527468
C 5.062312717564523 2.5796264368163535 0.5299846963631623
C 4.884843891812015 2.6203183411162874 5.260796581164557
C 4.8691502159820255 7.193810414833791 0.4023471373892821
C 4.742258447868434 7.3082836535023645 5.126267572030355
C 9.524137234656374 2.5689011057750872 0.17870564791117702
C 9.560747326099323 2.4642864908665483 5.118460620285149
C 9.586396825662792 7.3088595760866175 0.33629935643988773
C 9.433938231433443 7.145346494438525 5.176775965227727
